Title: * .step'ed log file data
Date: N/A
Plotname: unknown
Flags: real forward
No. Variables: 2
No. Points: 14
Offset:   0.0000000000000000e+000
Command: Linear Technology Corporation LTspice IV
Variables:
	0	rscale	step
	1	voutavg	unknown
Values:
0		5.000000000000000e-01
	4.995120000000000e+00
1		7.000000000000000e-01
	4.408010000000000e+00
2		9.000000000000000e-01
	3.944400000000000e+00
3		1.100000000000000e+00
	3.569030000000000e+00
4		1.300000000000000e+00
	3.258900000000000e+00
5		1.500000000000000e+00
	2.998350000000000e+00
6		1.700000000000000e+00
	2.776380000000000e+00
7		1.900000000000000e+00
	2.585010000000000e+00
8		2.100000000000000e+00
	2.418320000000000e+00
9		2.300000000000000e+00
	2.271830000000000e+00
10		2.500000000000000e+00
	2.142070000000000e+00
11		2.700000000000000e+00
	2.026330000000000e+00
12		2.900000000000000e+00
	1.922460000000000e+00
13		3.000000000000000e+00
	1.874420000000000e+00
