Title: * .step'ed log file data
Date: N/A
Plotname: unknown
Flags: real forward
No. Variables: 2
No. Points: 20
Offset:   0.0000000000000000e+000
Command: Linear Technology Corporation LTspice IV
Variables:
	0	spress	step
	1	voutavg	unknown
Values:
0		1.000000000000000e-01
	-2.690160000000000e+00
1		2.000000000000000e-01
	-2.391250000000000e+00
2		3.000000000000000e-01
	-2.092340000000000e+00
3		4.000000000000000e-01
	-1.793430000000000e+00
4		5.000000000000000e-01
	-1.494520000000000e+00
5		6.000000000000000e-01
	-1.195620000000000e+00
6		7.000000000000000e-01
	-8.967110000000000e-01
7		8.000000000000000e-01
	-5.978059999999999e-01
8		9.000000000000000e-01
	-2.989020000000000e-01
9		1.000000000000000e+00
	-5.646180000000000e-15
10		1.100000000000000e+00
	2.989010000000000e-01
11		1.200000000000000e+00
	5.978010000000000e-01
12		1.300000000000000e+00
	8.967000000000001e-01
13		1.400000000000000e+00
	1.195600000000000e+00
14		1.500000000000000e+00
	1.494490000000000e+00
15		1.600000000000000e+00
	1.793390000000000e+00
16		1.700000000000000e+00
	2.092280000000000e+00
17		1.800000000000000e+00
	2.391180000000000e+00
18		1.900000000000000e+00
	2.690070000000000e+00
19		2.000000000000000e+00
	2.988960000000000e+00
